#test_frame
200 atoms
2 atom types
145 bonds
1 bond types
140 angles
1 angle types
0.0  30  xlo xhi
0.0  30  ylo yhi
0.0  30  zlo zhi
0  0  0  xy xz yz

Atoms # full

1  1  1  0   25.187669   2.8456968   3.4715095
2  1  1  -1   25.620855   0.89346013   3.504998
3  1  1  1   25.795517   29.507963   4.9367417
4  1  1  1   26.800405   27.789175   5.1263949
5  1  1  1   28.71626   27.243894   4.9470435
6  1  1  1   0.35717986   27.45242   6.0712759
7  1  1  0   2.1188863   26.513115   6.1900039
8  1  1  -1   2.9906917   25.011564   5.1973805
9  1  1  -1   2.6356458   24.061131   3.4738321
10  1  1  -1   1.2686728   22.746231   2.8394639
11  1  1  0   0.60226775   20.97535   3.4874496
12  1  1  1   0.063353115   19.260276   2.6110411
13  1  1  0   0.56219151   18.31947   0.91810153
14  1  1  0   0.40727324   16.442613   0.24474762
15  1  1  -1   1.3541616   14.721937   0.62247643
16  1  1  0   0.78798451   12.818239   0.85779425
17  1  1  -1   29.51765   11.593866   29.915902
18  1  1  0   28.112586   10.294572   0.49696043
19  1  1  1   27.148864   9.9260635   2.2102737
20  1  1  -1   27.690879   9.3044023   4.0322938
21  1  1  -1   27.239786   7.7313912   5.1821421
22  1  1  -1   28.04028   6.896375   6.8136923
23  1  1  0   28.360673   5.0209542   7.4302519
24  1  1  0   29.964874   3.8359479   7.5795767
25  1  1  0   0.41689236   2.1929596   8.6266054
26  1  1  -1   1.789175   1.727434   10.005056
27  1  1  -1   3.4811477   0.66105018   10.012407
28  1  1  1   4.094486   28.975744   9.1272179
29  1  1  1   4.4345564   27.10133   9.7362534
30  1  1  -1   5.2626994   26.26862   11.355133
31  2  1  1   10.758153   0.86986399   2.763201
32  2  1  0   9.9939498   1.5449055   1.042645
33  2  1  0   10.629253   1.6248058   29.147914
34  2  1  1   12.41091   1.5033144   28.247394
35  2  1  -1   14.249267   2.1788252   28.652524
36  2  1  0   14.992352   3.7543063   29.635216
37  2  1  0   14.353643   5.6097442   0.021740474
38  2  1  1   14.78904   6.9981864   1.3938405
39  2  1  -1   13.840659   7.7674106   2.9777812
40  2  1  -1   12.276834   7.2149058   4.0954531
41  2  1  -1   11.114257   8.1209275   5.4473184
42  2  1  0   11.303694   8.6037148   7.3789058
43  2  1  0   12.49406   9.8276434   8.4205521
44  2  1  0   12.866583   11.792551   8.4014305
45  2  1  -1   12.489651   13.291127   7.1317101
46  2  1  0   12.221071   13.436271   5.1551479
47  2  1  1   11.428148   14.806089   3.9324981
48  2  1  -1   9.6547595   15.04768   3.039903
49  2  1  0   8.3623853   13.836533   2.1109844
50  2  1  -1   8.2782025   11.872226   1.7443579
51  2  1  1   7.0574185   10.383525   2.2860727
52  2  1  -1   5.1184971   10.244767   2.7565299
53  2  1  -1   3.4122113   10.869001   1.9205149
54  2  1  1   2.5022575   12.638166   1.7154788
55  2  1  1   0.88956927   13.293284   0.73056413
56  2  1  0   0.32185913   13.330591   28.813193
57  2  1  -1   29.463599   12.023045   27.566713
58  2  1  0   27.586236   11.434094   27.208038
59  2  1  -1   26.071216   10.774665   28.334923
60  2  1  1   25.660449   9.068487   29.294207
61  3  1  0   3.2664308   11.502277   20.34307
62  3  1  0   3.3808974   9.509202   20.463691
63  3  1  1   4.6490694   8.1215835   19.780863
64  3  1  -1   6.5211755   8.1403728   19.077396
65  3  1  0   7.4539084   9.055682   17.563389
66  3  1  0   8.9534876   8.5769759   16.329653
67  3  1  -1   9.5320592   6.9107303   15.386849
68  3  1  -1   9.6493403   4.9756923   15.878655
69  3  1  1   8.4115622   3.4091316   15.761211
70  3  1  1   7.3776889   2.3214024   17.083313
71  3  1  0   6.4600059   2.7029125   18.818913
72  3  1  0   5.2080418   1.6940549   20.008363
73  3  1  -1   5.4256255   0.40939726   21.5257
74  3  1  1   4.4550141   0.069277364   23.240994
75  3  1  1   4.9372537   29.249113   25.000191
76  3  1  1   4.7312317   27.436187   25.819248
77  3  1  1   3.6692764   26.682525   27.337222
78  3  1  1   3.4075537   27.16963   29.25926
79  3  1  -1   4.4217282   26.842763   0.95177478
80  3  1  -1   4.0792432   27.179719   2.8932085
81  3  1  0   5.0732121   26.811808   4.5892828
82  3  1  -1   6.6151191   25.644975   5.1001858
83  3  1  -1   8.5860138   25.915522   5.3060453
84  3  1  1   9.7394346   27.182243   6.3380522
85  3  1  -1   10.532729   27.19707   8.1739347
86  3  1  1   9.9350157   26.573755   9.9778798
87  3  1  0   10.757082   26.522304   11.800394
88  3  1  0   10.521055   27.568792   13.488338
89  3  1  -1   9.9756767   27.12759   15.361277
90  3  1  1   10.058415   25.49277   16.510414
91  4  1  -1   25.99849   15.159981   15.238558
92  4  1  1   27.335914   13.678078   15.115018
93  4  1  0   28.587996   12.792425   16.398727
94  4  1  1   0.43246867   12.02893   16.276272
95  4  1  1   2.200549   12.462934   17.104241
96  4  1  -1   3.5238442   13.950544   16.914748
97  4  1  0   3.4197245   15.877624   16.389849
98  4  1  0   4.7246819   17.228891   15.703436
99  4  1  -1   6.1284439   17.242781   14.278915
100  4  1  -1   8.0370805   17.832114   14.179955
101  4  1  0   9.7784313   17.102714   14.84001
102  4  1  1   10.746471   17.119696   16.590041
103  4  1  -1   10.5916   16.097084   18.301848
104  4  1  -1   9.0721218   15.42954   19.4179
105  4  1  -1   8.9138969   14.304447   21.063843
106  4  1  -1   8.0148264   12.575582   21.514063
107  4  1  0   8.5358043   10.646502   21.429005
108  4  1  1   10.250617   9.6350078   21.619524
109  4  1  1   12.09472   9.8236628   20.86873
110  4  1  1   13.855384   10.448132   21.582944
111  4  1  0   14.434582   11.833571   22.903962
112  4  1  -1   13.50639   13.255135   23.961135
113  4  1  0   13.506721   13.817731   25.880376
114  4  1  0   13.981046   12.936943   27.612204
115  4  1  1   13.953963   11.058132   28.297284
116  4  1  0   12.539398   9.6688997   28.560043
117  4  1  1   11.23581   9.2352025   0.013509662
118  4  1  0   10.443086   7.5514944   0.74611778
119  4  1  -1   8.9646868   6.3252014   0.18885466
120  4  1  1   7.1641334   5.8561248   0.92232218
121  5  1  1   16.43732   9.4522723   28.689849
122  5  1  1   15.238823   10.980629   28.212637
123  5  1  0   15.472327   12.708388   27.232675
124  5  1  0   17.024665   13.897471   26.81276
125  5  1  0   17.255607   15.854985   26.473929
126  5  1  1   18.804869   17.119721   26.488986
127  5  1  1   19.481259   18.542214   25.256505
128  5  1  -1   20.113564   18.586395   23.359602
129  5  1  -1   21.263906   19.816235   22.280619
130  5  1  1   20.927201   21.193102   20.869638
131  5  1  -1   21.159329   21.269937   18.884641
132  5  1  0   20.864542   22.661946   17.479147
133  5  1  0   20.945369   22.693493   15.48103
134  5  1  -1   20.15628   23.848764   14.051804
135  5  1  1   19.46419   25.723427   13.970247
136  5  1  0   20.156888   27.456672   13.251893
137  5  1  0   21.891887   28.070718   12.469125
138  5  1  -1   23.819683   27.844461   12.951215
139  5  1  1   25.518516   27.620549   11.919793
140  5  1  1   27.342466   26.913054   12.335313
141  5  1  1   29.134467   27.017097   11.453323
142  5  1  0   29.904346   28.065983   9.9344007
143  5  1  0   29.675669   29.928514   9.24253
144  5  1  0   0.51632484   1.6987329   9.6420586
145  5  1  1   1.0789642   2.6535801   11.306902
146  5  1  0   1.5520937   4.5426559   11.762469
147  5  1  -1   1.7719323   6.2359735   10.721149
148  5  1  1   2.5992442   6.7193283   8.9656083
149  5  1  0   4.031319   7.9857887   8.3780372
150  5  1  1   4.1336832   9.9586643   8.0661345
151  6  2  -1   7.6313585   12.661198   4.6065762
152  7  2  1   0.12716674   21.594226   20.994101
153  8  2  1   11.263463   26.929208   14.2384
154  9  2  -1   8.6821372   17.181772   5.6983691
155  10  2  -1   20.05035   4.7753466   9.4268707
156  11  2  0   1.6931146   8.5387875   8.6066938
157  12  2  1   14.592776   12.239939   17.522347
158  13  2  0   14.731013   24.599865   1.8190803
159  14  2  1   22.261983   11.627865   19.8846
160  15  2  -1   29.591264   17.334194   8.6056181
161  16  2  0   25.18455   24.079114   13.189777
162  17  2  0   6.9015634   21.763037   4.8140889
163  18  2  -1   19.576253   10.69012   25.338633
164  19  2  1   5.1099655   5.39757   19.352542
165  20  2  0   17.322342   8.2269963   13.023705
166  21  2  0   21.02886   28.85391   21.603165
167  22  2  1   11.58196   20.317487   27.935266
168  23  2  1   24.535397   5.5259808   26.213762
169  24  2  -1   15.910444   20.814752   28.88596
170  25  2  -1   5.4570606   17.826743   14.726025
171  26  2  0   7.6468758   24.353862   6.7585744
172  27  2  0   22.216551   0.21965503   27.868822
173  28  2  1   4.7731505   23.681351   6.4583747
174  29  2  -1   14.042221   2.4574623   15.635268
175  30  2  -1   4.0218514   2.9528151   8.6719192
176  31  2  -1   16.284632   23.048756   19.561361
177  32  2  -1   25.24956   11.240998   21.749675
178  33  2  -1   15.143116   14.667584   12.90187
179  34  2  1   12.760146   11.14433   14.330857
180  35  2  1   18.784509   23.333839   0.67859464
181  36  2  0   22.323151   27.791149   14.827825
182  37  2  1   26.512719   8.6490247   9.4600905
183  38  2  1   6.1052021   21.852065   1.6565406
184  39  2  -1   8.4728548   23.460548   17.761341
185  40  2  1   17.218519   25.885297   17.184759
186  41  2  -1   5.1380074   4.4273701   22.466799
187  42  2  0   7.7865234   29.473008   10.647014
188  43  2  0   14.467884   17.968851   0.69260862
189  44  2  1   1.0303556   4.6029499   14.537658
190  45  2  -1   27.456872   20.803181   5.1254864
191  46  2  1   19.910571   14.657705   6.2362828
192  47  2  -1   29.971942   25.361153   15.19412
193  48  2  0   6.9245889   29.128104   2.9247446
194  49  2  -1   23.265407   26.737089   18.483416
195  50  2  -1   21.886342   29.383737   26.48873
196  51  2  1   24.486389   8.7149598   19.767046
197  52  2  0   18.710277   5.2678209   3.3898174
198  53  2  0   2.8339391   13.895787   7.2523869
199  54  2  1   15.409655   5.7659723   28.860835
200  55  2  1   24.817238   10.004804   7.6377326

Bonds

1  1  1  2
2  1  2  3
3  1  3  4
4  1  4  5
5  1  5  6
6  1  6  7
7  1  7  8
8  1  8  9
9  1  9  10
10  1  10  11
11  1  11  12
12  1  12  13
13  1  13  14
14  1  14  15
15  1  15  16
16  1  16  17
17  1  17  18
18  1  18  19
19  1  19  20
20  1  20  21
21  1  21  22
22  1  22  23
23  1  23  24
24  1  24  25
25  1  25  26
26  1  26  27
27  1  27  28
28  1  28  29
29  1  29  30
30  1  31  32
31  1  32  33
32  1  33  34
33  1  34  35
34  1  35  36
35  1  36  37
36  1  37  38
37  1  38  39
38  1  39  40
39  1  40  41
40  1  41  42
41  1  42  43
42  1  43  44
43  1  44  45
44  1  45  46
45  1  46  47
46  1  47  48
47  1  48  49
48  1  49  50
49  1  50  51
50  1  51  52
51  1  52  53
52  1  53  54
53  1  54  55
54  1  55  56
55  1  56  57
56  1  57  58
57  1  58  59
58  1  59  60
59  1  61  62
60  1  62  63
61  1  63  64
62  1  64  65
63  1  65  66
64  1  66  67
65  1  67  68
66  1  68  69
67  1  69  70
68  1  70  71
69  1  71  72
70  1  72  73
71  1  73  74
72  1  74  75
73  1  75  76
74  1  76  77
75  1  77  78
76  1  78  79
77  1  79  80
78  1  80  81
79  1  81  82
80  1  82  83
81  1  83  84
82  1  84  85
83  1  85  86
84  1  86  87
85  1  87  88
86  1  88  89
87  1  89  90
88  1  91  92
89  1  92  93
90  1  93  94
91  1  94  95
92  1  95  96
93  1  96  97
94  1  97  98
95  1  98  99
96  1  99  100
97  1  100  101
98  1  101  102
99  1  102  103
100  1  103  104
101  1  104  105
102  1  105  106
103  1  106  107
104  1  107  108
105  1  108  109
106  1  109  110
107  1  110  111
108  1  111  112
109  1  112  113
110  1  113  114
111  1  114  115
112  1  115  116
113  1  116  117
114  1  117  118
115  1  118  119
116  1  119  120
117  1  121  122
118  1  122  123
119  1  123  124
120  1  124  125
121  1  125  126
122  1  126  127
123  1  127  128
124  1  128  129
125  1  129  130
126  1  130  131
127  1  131  132
128  1  132  133
129  1  133  134
130  1  134  135
131  1  135  136
132  1  136  137
133  1  137  138
134  1  138  139
135  1  139  140
136  1  140  141
137  1  141  142
138  1  142  143
139  1  143  144
140  1  144  145
141  1  145  146
142  1  146  147
143  1  147  148
144  1  148  149
145  1  149  150

Angles

1  1  1  2  3
2  1  2  3  4
3  1  3  4  5
4  1  4  5  6
5  1  5  6  7
6  1  6  7  8
7  1  7  8  9
8  1  8  9  10
9  1  9  10  11
10  1  10  11  12
11  1  11  12  13
12  1  12  13  14
13  1  13  14  15
14  1  14  15  16
15  1  15  16  17
16  1  16  17  18
17  1  17  18  19
18  1  18  19  20
19  1  19  20  21
20  1  20  21  22
21  1  21  22  23
22  1  22  23  24
23  1  23  24  25
24  1  24  25  26
25  1  25  26  27
26  1  26  27  28
27  1  27  28  29
28  1  28  29  30
29  1  31  32  33
30  1  32  33  34
31  1  33  34  35
32  1  34  35  36
33  1  35  36  37
34  1  36  37  38
35  1  37  38  39
36  1  38  39  40
37  1  39  40  41
38  1  40  41  42
39  1  41  42  43
40  1  42  43  44
41  1  43  44  45
42  1  44  45  46
43  1  45  46  47
44  1  46  47  48
45  1  47  48  49
46  1  48  49  50
47  1  49  50  51
48  1  50  51  52
49  1  51  52  53
50  1  52  53  54
51  1  53  54  55
52  1  54  55  56
53  1  55  56  57
54  1  56  57  58
55  1  57  58  59
56  1  58  59  60
57  1  61  62  63
58  1  62  63  64
59  1  63  64  65
60  1  64  65  66
61  1  65  66  67
62  1  66  67  68
63  1  67  68  69
64  1  68  69  70
65  1  69  70  71
66  1  70  71  72
67  1  71  72  73
68  1  72  73  74
69  1  73  74  75
70  1  74  75  76
71  1  75  76  77
72  1  76  77  78
73  1  77  78  79
74  1  78  79  80
75  1  79  80  81
76  1  80  81  82
77  1  81  82  83
78  1  82  83  84
79  1  83  84  85
80  1  84  85  86
81  1  85  86  87
82  1  86  87  88
83  1  87  88  89
84  1  88  89  90
85  1  91  92  93
86  1  92  93  94
87  1  93  94  95
88  1  94  95  96
89  1  95  96  97
90  1  96  97  98
91  1  97  98  99
92  1  98  99  100
93  1  99  100  101
94  1  100  101  102
95  1  101  102  103
96  1  102  103  104
97  1  103  104  105
98  1  104  105  106
99  1  105  106  107
100  1  106  107  108
101  1  107  108  109
102  1  108  109  110
103  1  109  110  111
104  1  110  111  112
105  1  111  112  113
106  1  112  113  114
107  1  113  114  115
108  1  114  115  116
109  1  115  116  117
110  1  116  117  118
111  1  117  118  119
112  1  118  119  120
113  1  121  122  123
114  1  122  123  124
115  1  123  124  125
116  1  124  125  126
117  1  125  126  127
118  1  126  127  128
119  1  127  128  129
120  1  128  129  130
121  1  129  130  131
122  1  130  131  132
123  1  131  132  133
124  1  132  133  134
125  1  133  134  135
126  1  134  135  136
127  1  135  136  137
128  1  136  137  138
129  1  137  138  139
130  1  138  139  140
131  1  139  140  141
132  1  140  141  142
133  1  141  142  143
134  1  142  143  144
135  1  143  144  145
136  1  144  145  146
137  1  145  146  147
138  1  146  147  148
139  1  147  148  149
140  1  148  149  150
