#test_frame
120 atoms
2 atom types
0.0  10  xlo xhi
0.0  10  ylo yhi
0.0  10  zlo zhi
0  0  0  xy xz yz

Atoms # full

1  1  1  1   6.9263371   4.271689   6.2715329
2  2  1  1   9.6160511   7.1107203   9.072406
3  3  1  1   5.1553968   6.5321511   6.7085535
4  4  1  1   6.5878911   0.35904915   3.1883589
5  5  1  1   8.9951564   1.3284659   3.6517252
6  6  1  1   0.71697422   7.7846787   1.4232923
7  7  1  1   9.0815425   0.19940086   9.4642213
8  8  1  1   5.6554683   4.9721446   2.2314603
9  9  1  1   5.8088446   0.15346714   0.6619571
10  10  1  1   8.2731361   7.936696   2.5521287
11  11  1  1   1.1838699   8.9021526   3.5012137
12  12  1  1   3.7809887   2.6776124   0.95865878
13  13  1  1   2.4329889   9.4807242   8.084667
14  14  1  1   1.3243978   1.2635031   4.2622508
15  15  1  1   8.6142322   0.86411356   1.7555695
16  16  1  1   3.6465385   0.47558542   0.060838646
17  17  1  1   1.3270543   7.6645065   8.0741173
18  18  1  1   9.346945   3.2429638   2.278837
19  19  1  1   0.23169158   5.3293832   1.4930181
20  20  1  1   1.1960678   3.7889258   6.4439189
21  21  1  1   2.4241407   7.4255017   6.3388615
22  22  1  1   0.33300567   6.8109089   3.1004832
23  23  1  1   9.9543502   9.7094522   1.37006
24  24  1  1   9.8587366   4.9757601   1.3705739
25  25  1  1   6.5818562   3.3235074   4.1012286
26  26  1  1   4.1135647   0.12977855   4.844695
27  27  1  1   3.9727961   4.5668097   4.3550716
28  28  1  1   2.1007218   0.56113445   7.8271095
29  29  1  1   3.1791837   5.8502417   1.6677516
30  30  1  1   3.8937981   3.1597212   6.3178593
31  31  1  1   4.9436483   9.1755133   2.8911265
32  32  1  1   6.7796188   7.9879601   7.2632377
33  33  1  1   3.1579239   7.1811086   3.4651597
34  34  1  1   7.6721059   5.9988101   8.0394621
35  35  1  1   9.7204353   5.1705408   9.9074223
36  36  1  1   1.97483   5.0923513   0.16633262
37  37  1  1   4.9799645   9.7683242   7.5797996
38  38  1  1   6.9110567   0.14237301   6.7795579
39  39  1  1   0.13333585   1.576363   8.3114781
40  40  1  1   5.2554434   7.5699638   1.3332675
41  41  1  1   3.4853816   1.4215013   3.3403552
42  42  1  1   3.3427765   2.3993992   9.4437978
43  43  1  1   3.5122691   8.7261498   1.2772662
44  44  1  1   4.1283075   7.4504407   9.0063181
45  45  1  1   2.6724482   4.8386481   7.16841
46  46  1  1   2.0622211   3.5859721   2.3813803
47  47  1  1   8.1547692   1.5629183   5.7857827
48  48  1  1   8.3609418   2.5460645   8.562734
49  49  1  1   0.94140936   3.1787838   0.60377327
50  50  1  1   0.28364617   0.67053953   6.5854134
51  51  1  1   0.17981772   5.4905321   8.4809647
52  52  1  1   8.7646781   8.632317   7.2953343
53  53  1  1   6.8303456   2.4962992   1.7032793
54  54  1  1   9.6291525   0.31029007   6.621953
55  55  1  1   3.772181   5.3134823   9.4258536
56  56  1  1   6.5832071   8.6298276   4.6695322
57  57  1  1   2.2956236   1.4912091   1.7951934
58  58  1  1   8.1634504   4.1887547   0.33341313
59  59  1  1   9.0348423   7.2642676   5.8111016
60  60  1  1   7.0227694   5.514818   9.9637492
61  61  2  -1   9.0814335   4.764093   5.2921961
62  62  2  -1   7.9567764   6.4826217   0.45016151
63  63  2  -1   6.1061558   7.3829154   9.1932314
64  64  2  -1   5.40696   1.5796448   4.4856439
65  65  2  -1   6.4449247   6.6283969   5.143644
66  66  2  -1   1.3707468   9.6953265   5.3819187
67  67  2  -1   3.9274647   9.1553555   4.9811993
68  68  2  -1   0.10773488   7.916691   9.5939213
69  69  2  -1   6.7181271   3.2000994   9.4412826
70  70  2  -1   3.9441386   0.25330642   9.1436414
71  71  2  -1   0.1031084   1.9221661   2.5149453
72  72  2  -1   6.0170005   4.5301223   0.042864965
73  73  2  -1   6.8510958   0.26144878   9.3934187
74  74  2  -1   7.6643487   5.9137874   2.9140736
75  75  2  -1   1.4299919   5.4366493   4.8084052
76  76  2  -1   5.9830356   1.7288001   7.9623022
77  77  2  -1   7.0091649   9.7878274   9.1450211
78  78  2  -1   3.3985626   9.2483164   9.9498864
79  79  2  -1   0.031126452   3.8850288   2.8795971
80  80  2  -1   0.62514161   7.1252873   5.5469666
81  81  2  -1   9.585393   8.1120574   0.045183618
82  82  2  -1   9.4176088   4.9166164   7.6183553
83  83  2  -1   0.21646385   0.25634424   1.4670473
84  84  2  -1   9.7577133   9.1099652   5.0640326
85  85  2  -1   4.5217244   0.29411605   6.9162378
86  86  2  -1   9.3481831   9.1835039   9.8273155
87  87  2  -1   7.7718864   8.8346035   0.31152643
88  88  2  -1   1.3741176   3.6711606   9.0040191
89  89  2  -1   9.9983529   2.3088812   5.6354209
90  90  2  -1   8.3914727   2.1250588   0.22284648
91  91  2  -1   4.8508298   4.6247957   7.2211049
92  92  2  -1   9.880391   0.019998622   0.16356002
93  93  2  -1   1.3703542   0.12093544   9.6755715
94  94  2  -1   1.4751798   7.3775021   0.50374639
95  95  2  -1   5.0153614   7.3355999   9.7093356
96  96  2  -1   0.71374507   9.820471   0.72665698
97  97  2  -1   4.7038524   9.5499338   2.3940998
98  98  2  -1   1.0410802   9.906681   9.625486
99  99  2  -1   1.946498   4.100107   1.0879631
100  100  2  -1   2.3665474   3.2049853   4.3600343
101  101  2  -1   8.8868784   4.4660123   8.1005406
102  102  2  -1   6.6374013   9.9049679   6.5354198
103  103  2  -1   6.9375944   9.7750297   1.8815944
104  104  2  -1   5.6462028   8.247385   7.5656884
105  105  2  -1   2.0365135   7.719811   5.6189199
106  106  2  -1   5.7247742   0.057956044   3.7673127
107  107  2  -1   9.894322   7.0097117   3.695486
108  108  2  -1   5.2922619   9.9807231   0.27061249
109  109  2  -1   5.4719308   0.49510466   7.4742547
110  110  2  -1   1.9538946   7.186737   9.8996205
111  111  2  -1   2.3586283   1.4837085   6.0220532
112  112  2  -1   0.08863887   9.6381324   7.7458335
113  113  2  -1   3.8829448   6.6143008   0.4770738
114  114  2  -1   2.5060593   5.9471531   7.306636
115  115  2  -1   8.5073555   3.0903699   4.3499461
116  116  2  -1   0.71809353   7.7500273   6.9285273
117  117  2  -1   0.44558324   5.3934767   8.9058611
118  118  2  -1   3.5363718   2.4669589   1.7510288
119  119  2  -1   1.6841339   3.2038864   0.6015703
120  120  2  -1   2.0944688   7.5469736   9.1920675
