#test_frame
150 atoms
2 atom types
149 bonds
3 bond types
0.0  67.75161  xlo xhi
0.0  67.75161  ylo yhi
0.0  67.75161  zlo zhi
0  0  0  xy xz yz

Atoms # full

1  1  1  0   5.7458049   33.475638   34.585374
2  1  1  0   7.6858049   33.475638   34.585374
3  1  1  0   9.6258049   33.475638   34.585374
4  1  1  0   11.565805   33.475638   34.585374
5  1  1  0   13.505805   33.475638   34.585374
6  1  1  0   15.445805   33.475638   34.585374
7  1  1  0   17.385805   33.475638   34.585374
8  1  1  0   19.325805   33.475638   34.585374
9  1  1  0   21.265805   33.475638   34.585374
10  1  1  0   23.205805   33.475638   34.585374
11  1  1  0   25.145805   33.475638   34.585374
12  1  1  0   27.085805   33.475638   34.585374
13  1  1  0   29.025805   33.475638   34.585374
14  1  1  0   30.965805   33.475638   34.585374
15  1  1  0   32.905805   33.475638   34.585374
16  1  1  0   34.845805   33.475638   34.585374
17  1  1  0   36.785805   33.475638   34.585374
18  1  1  0   38.725805   33.475638   34.585374
19  1  1  0   40.665805   33.475638   34.585374
20  1  1  0   42.605805   33.475638   34.585374
21  1  1  0   44.545805   33.475638   34.585374
22  1  1  0   46.485805   33.475638   34.585374
23  1  1  0   48.425805   33.475638   34.585374
24  1  1  0   50.365805   33.475638   34.585374
25  1  1  0   52.305805   33.475638   34.585374
26  1  1  0   54.245805   33.475638   34.585374
27  1  1  0   56.185805   33.475638   34.585374
28  1  1  0   58.125805   33.475638   34.585374
29  1  1  0   60.065805   33.475638   34.585374
30  1  1  0   62.005805   33.475638   34.585374
31  1  2  0   5.7458049   33.428033   36.52479
32  1  2  0   5.7458049   33.380428   38.464206
33  1  2  0   5.7458049   33.332823   40.403622
34  1  2  0   5.7458049   33.285218   42.343038
35  1  2  0   7.6858049   32.277047   36.110819
36  1  2  0   7.6858049   31.078457   37.636263
37  1  2  0   7.6858049   29.879866   39.161708
38  1  2  0   7.6858049   28.681276   40.687152
39  1  2  0   9.6258049   34.441535   36.267826
40  1  2  0   9.6258049   35.407433   37.950277
41  1  2  0   9.6258049   36.37333   39.632728
42  1  2  0   9.6258049   37.339228   41.315179
43  1  2  0   11.565805   34.943605   33.317039
44  1  2  0   11.565805   36.411571   32.048704
45  1  2  0   11.565805   37.879538   30.780369
46  1  2  0   11.565805   39.347505   29.512035
47  1  2  0   13.505805   34.543695   32.965851
48  1  2  0   13.505805   35.611752   31.346329
49  1  2  0   13.505805   36.679808   29.726806
50  1  2  0   13.505805   37.747865   28.107283
51  1  2  0   15.445805   35.405347   34.784932
52  1  2  0   15.445805   37.335056   34.98449
53  1  2  0   15.445805   39.264765   35.184048
54  1  2  0   15.445805   41.194474   35.383606
55  1  2  0   17.385805   33.668846   32.655019
56  1  2  0   17.385805   33.862055   30.724664
57  1  2  0   17.385805   34.055264   28.794309
58  1  2  0   17.385805   34.248473   26.863954
59  1  2  0   19.325805   35.369976   35.003805
60  1  2  0   19.325805   37.264314   35.422235
61  1  2  0   19.325805   39.158652   35.840665
62  1  2  0   19.325805   41.052989   36.259095
63  1  2  0   21.265805   34.429556   32.896102
64  1  2  0   21.265805   35.383474   31.20683
65  1  2  0   21.265805   36.337393   29.517558
66  1  2  0   21.265805   37.291311   27.828286
67  1  2  0   23.205805   34.254871   32.80875
68  1  2  0   23.205805   35.034105   31.032125
69  1  2  0   23.205805   35.813338   29.2555
70  1  2  0   23.205805   36.592572   27.478876
71  1  2  0   25.145805   31.88866   35.701215
72  1  2  0   25.145805   30.301682   36.817056
73  1  2  0   25.145805   28.714703   37.932896
74  1  2  0   25.145805   27.127725   39.048737
75  1  2  0   27.085805   32.537366   32.887362
76  1  2  0   27.085805   31.599095   31.189349
77  1  2  0   27.085805   30.660823   29.491337
78  1  2  0   27.085805   29.722552   27.793324
79  1  2  0   29.025805   33.650026   32.653228
80  1  2  0   29.025805   33.824415   30.721082
81  1  2  0   29.025805   33.998804   28.788936
82  1  2  0   29.025805   34.173192   26.85679
83  1  2  0   30.965805   32.752285   32.785274
84  1  2  0   30.965805   32.028932   30.985174
85  1  2  0   30.965805   31.305579   29.185074
86  1  2  0   30.965805   30.582226   27.384974
87  1  2  0   32.905805   31.819253   33.575429
88  1  2  0   32.905805   30.162869   32.565483
89  1  2  0   32.905805   28.506484   31.555538
90  1  2  0   32.905805   26.850099   30.545592
91  1  2  0   34.845805   34.361079   36.311524
92  1  2  0   34.845805   35.24652   38.037674
93  1  2  0   34.845805   36.131961   39.763824
94  1  2  0   34.845805   37.017402   41.489975
95  1  2  0   36.785805   31.537958   34.490525
96  1  2  0   36.785805   29.600278   34.395676
97  1  2  0   36.785805   27.662598   34.300827
98  1  2  0   36.785805   25.724918   34.205978
99  1  2  0   38.725805   33.284183   32.654845
100  1  2  0   38.725805   33.092729   30.724315
101  1  2  0   38.725805   32.901274   28.793785
102  1  2  0   38.725805   32.70982   26.863255
103  1  2  0   40.665805   35.400282   34.828984
104  1  2  0   40.665805   37.324926   35.072594
105  1  2  0   40.665805   39.24957   35.316203
106  1  2  0   40.665805   41.174214   35.559813
107  1  2  0   42.605805   33.476442   32.645374
108  1  2  0   42.605805   33.477247   30.705375
109  1  2  0   42.605805   33.478051   28.765375
110  1  2  0   42.605805   33.478856   26.825375
111  1  2  0   44.545805   34.351668   32.854429
112  1  2  0   44.545805   35.227698   31.123484
113  1  2  0   44.545805   36.103728   29.392538
114  1  2  0   44.545805   36.979758   27.661593
115  1  2  0   46.485805   35.413213   34.488409
116  1  2  0   46.485805   37.350788   34.391444
117  1  2  0   46.485805   39.288363   34.294479
118  1  2  0   46.485805   41.225939   34.197513
119  1  2  0   48.425805   31.769437   33.662077
120  1  2  0   48.425805   30.063236   32.73878
121  1  2  0   48.425805   28.357034   31.815483
122  1  2  0   48.425805   26.650833   30.892186
123  1  2  0   50.365805   35.226231   35.421451
124  1  2  0   50.365805   36.976824   36.257527
125  1  2  0   50.365805   38.727417   37.093604
126  1  2  0   50.365805   40.47801   37.929681
127  1  2  0   52.305805   33.637065   32.652102
128  1  2  0   52.305805   33.798492   30.71883
129  1  2  0   52.305805   33.95992   28.785558
130  1  2  0   52.305805   34.121347   26.852286
131  1  2  0   54.245805   33.107844   32.680557
132  1  2  0   54.245805   32.74005   30.77574
133  1  2  0   54.245805   32.372256   28.870924
134  1  2  0   54.245805   32.004462   26.966107
135  1  2  0   56.185805   35.006899   35.776525
136  1  2  0   56.185805   36.53816   36.967675
137  1  2  0   56.185805   38.069421   38.158826
138  1  2  0   56.185805   39.600682   39.349976
139  1  2  0   58.125805   31.537671   34.674168
140  1  2  0   58.125805   29.599704   34.762963
141  1  2  0   58.125805   27.661737   34.851757
142  1  2  0   58.125805   25.72377   34.940551
143  1  2  0   60.065805   33.998646   36.453545
144  1  2  0   60.065805   34.521654   38.321716
145  1  2  0   60.065805   35.044661   40.189887
146  1  2  0   60.065805   35.567669   42.058058
147  1  2  0   62.005805   32.752923   36.385731
148  1  2  0   62.005805   32.030207   38.186087
149  1  2  0   62.005805   31.307492   39.986443
150  1  2  0   62.005805   30.584777   41.7868

Bonds

1  1  1  2
2  1  2  3
3  1  3  4
4  1  4  5
5  1  5  6
6  1  6  7
7  1  7  8
8  1  8  9
9  1  9  10
10  1  10  11
11  1  11  12
12  1  12  13
13  1  13  14
14  1  14  15
15  1  15  16
16  1  16  17
17  1  17  18
18  1  18  19
19  1  19  20
20  1  20  21
21  1  21  22
22  1  22  23
23  1  23  24
24  1  24  25
25  1  25  26
26  1  26  27
27  1  27  28
28  1  28  29
29  1  29  30
30  2  1  31
31  3  31  32
32  3  32  33
33  3  33  34
34  2  2  35
35  3  35  36
36  3  36  37
37  3  37  38
38  2  3  39
39  3  39  40
40  3  40  41
41  3  41  42
42  2  4  43
43  3  43  44
44  3  44  45
45  3  45  46
46  2  5  47
47  3  47  48
48  3  48  49
49  3  49  50
50  2  6  51
51  3  51  52
52  3  52  53
53  3  53  54
54  2  7  55
55  3  55  56
56  3  56  57
57  3  57  58
58  2  8  59
59  3  59  60
60  3  60  61
61  3  61  62
62  2  9  63
63  3  63  64
64  3  64  65
65  3  65  66
66  2  10  67
67  3  67  68
68  3  68  69
69  3  69  70
70  2  11  71
71  3  71  72
72  3  72  73
73  3  73  74
74  2  12  75
75  3  75  76
76  3  76  77
77  3  77  78
78  2  13  79
79  3  79  80
80  3  80  81
81  3  81  82
82  2  14  83
83  3  83  84
84  3  84  85
85  3  85  86
86  2  15  87
87  3  87  88
88  3  88  89
89  3  89  90
90  2  16  91
91  3  91  92
92  3  92  93
93  3  93  94
94  2  17  95
95  3  95  96
96  3  96  97
97  3  97  98
98  2  18  99
99  3  99  100
100  3  100  101
101  3  101  102
102  2  19  103
103  3  103  104
104  3  104  105
105  3  105  106
106  2  20  107
107  3  107  108
108  3  108  109
109  3  109  110
110  2  21  111
111  3  111  112
112  3  112  113
113  3  113  114
114  2  22  115
115  3  115  116
116  3  116  117
117  3  117  118
118  2  23  119
119  3  119  120
120  3  120  121
121  3  121  122
122  2  24  123
123  3  123  124
124  3  124  125
125  3  125  126
126  2  25  127
127  3  127  128
128  3  128  129
129  3  129  130
130  2  26  131
131  3  131  132
132  3  132  133
133  3  133  134
134  2  27  135
135  3  135  136
136  3  136  137
137  3  137  138
138  2  28  139
139  3  139  140
140  3  140  141
141  3  141  142
142  2  29  143
143  3  143  144
144  3  144  145
145  3  145  146
146  2  30  147
147  3  147  148
148  3  148  149
149  3  149  150
